VARIABLES = "Beta [°]" "Alpha [°]" CFX CFY CFZ CMX CMY CMZ CL CD CS CR CM CN
ZONE T=MGI_woweapons_M3_MID, I=19, J=14, K=1
-180.00	-90.00	0.192154143	-0.024956717	1.339577999	-0.257083091	-0.145378763	-0.012174922	-0.192154143	1.339577999	0.024956717	0.012174922	0.145378763	-0.257083091
-180.00	-80.00	0.215530374	-0.027526492	1.244363792	-0.233024532	0.017600266	0.005839832	-0.428337488	1.262885567	0.027526492	0.034713173	-0.017600266	-0.228470290
-180.00	-70.00	0.243790756	-0.026243523	1.130528674	-0.109823103	0.158051476	0.015811756	-0.615751953	1.145730802	0.026243523	0.022703523	-0.158051476	-0.097792020
-180.00	-60.00	0.275002685	-0.021331956	0.992917221	0.023893615	0.155818201	0.017087178	-0.734617922	0.997392879	0.021331956	-0.026744737	-0.155818201	0.029236066
-180.00	-50.00	0.302191748	-0.011443991	0.828195140	0.053235480	0.059584610	0.019573989	-0.763845884	0.828679396	0.011443991	-0.049213653	-0.059584610	0.053362662
-180.00	-40.00	0.305865611	0.007443379	0.644471564	0.031417846	0.077588169	0.016230522	-0.690300486	0.648564988	-0.007443379	-0.034500245	-0.077588169	0.032628303
-180.00	-30.00	0.264067502	0.015530939	0.481534039	0.016098060	0.283578627	0.014865100	-0.549054461	0.469456185	-0.015530939	-0.021373879	-0.283578627	0.020922585
-180.00	-20.00	0.193833686	0.006239233	0.338564233	0.007422141	0.463230084	0.009959758	-0.384441337	0.297939872	-0.006239233	-0.010380969	-0.463230084	0.011897633
-180.00	-10.00	0.123751672	-0.008860528	0.164136133	-0.009301978	0.376978459	0.002181239	-0.183131789	0.150373547	0.008860528	0.008781892	-0.376978459	0.000532829
-180.00	0.00	0.075795460	-0.015679199	-0.087772990	-0.021146191	0.062072857	-0.004208813	0.087772990	0.075795460	0.015679199	0.021146191	-0.062072857	-0.004208813
-180.00	10.00	0.063220648	-0.010145677	-0.364873904	-0.009440033	-0.251685421	-0.003025706	0.370308800	0.125619873	0.010145677	0.008771209	0.251685421	-0.001340494
-180.00	20.00	0.112646916	-0.002289414	-0.544063739	0.005106854	-0.420665021	-0.000820096	0.549780195	0.291934234	0.002289414	-0.005079362	0.420665021	-0.002517285
-180.00	30.00	0.177496379	0.003268835	-0.674879039	0.011942325	-0.460080113	0.001576811	0.673210582	0.491155893	-0.003268835	-0.009553952	0.460080113	-0.004605604
-180.00	40.00	0.193497360	0.004771333	-0.864107345	0.008494338	-0.432988633	0.002633098	0.786322335	0.703665072	-0.004771333	-0.004814518	0.432988633	-0.003442986
-180.00	50.00	0.190019770	-0.006191718	-1.053613735	-0.009843677	-0.383724869	0.004651247	0.822813443	0.929257301	0.006191718	0.009890455	0.383724869	0.010530458
-180.00	60.00	0.183395510	-0.020599053	-1.184773946	-0.009474943	-0.337010413	0.000709298	0.751212144	1.117742090	0.020599053	0.005351742	0.337010413	0.008560190
-180.00	70.00	0.171530711	-0.025034253	-1.281754754	0.050071213	-0.292107166	0.012102707	0.599572088	1.263122443	0.025034253	-0.005752539	0.292107166	-0.042912180
-180.00	80.00	0.162673331	-0.022066888	-1.375634725	0.176314543	-0.230084678	0.058659040	0.399078421	1.382983670	0.022066888	0.027151178	0.230084678	-0.163449894
-180.00	90.00	0.160539999	-0.016102953	-1.471057390	0.328728312	-0.146791041	0.120010105	0.160539999	1.471057390	0.016102953	0.120010105	0.146791041	-0.328728312
-175.00	-90.00	0.188433903	0.026285750	1.344434927	-0.493264668	-0.148212680	-0.005355883	-0.188433903	1.341609900	-0.143360950	0.018253089	0.148115482	-0.493264668
-175.00	-80.00	0.212258682	0.022455716	1.257908497	-0.493513160	0.015059548	0.022567046	-0.427467514	1.272759261	-0.127126213	0.061919397	-0.024408252	-0.482096860
-175.00	-70.00	0.242644223	0.019601921	1.156233312	-0.365804373	0.155265965	0.040697823	-0.623466069	1.166751268	-0.106989399	0.073006137	-0.168912537	-0.329824194
-175.00	-60.00	0.277229966	0.016447525	1.029909022	-0.193694341	0.153297273	0.038865231	-0.755042704	1.028054331	-0.082040439	0.049587702	-0.164088230	-0.148311604
-175.00	-50.00	0.309687222	0.020437693	0.863555936	-0.119923914	0.065953107	0.028588329	-0.792317232	0.859091811	-0.060665889	0.049227486	-0.074329293	-0.073490825
-175.00	-40.00	0.320657841	0.043285601	0.662665608	-0.104547134	0.102243939	0.012998440	-0.713746194	0.672808380	-0.058836381	0.062548405	-0.109563184	-0.057244220
-175.00	-30.00	0.275157543	0.050844250	0.500670376	-0.084229153	0.313670387	-0.001076679	-0.571172036	0.491200599	-0.051700281	0.045865126	-0.318787397	-0.043047008
-175.00	-20.00	0.197074667	0.034994375	0.384880755	-0.063976417	0.462219228	-0.024245488	-0.429073111	0.318670921	-0.030193791	0.027865229	-0.464977253	-0.044664529
-175.00	-10.00	0.119433104	0.016027189	0.240291928	-0.055290986	0.322641116	-0.048375753	-0.257380694	0.160135408	-0.009351743	0.034492159	-0.325426946	-0.057241995
-175.00	0.00	0.064063113	0.015759556	-0.024458976	-0.023458334	-0.020618956	-0.064589586	0.024458976	0.065192870	-0.010116118	0.025166128	0.018495966	-0.064589586
-175.00	10.00	0.043744605	0.034722021	-0.345003966	0.044470643	-0.313821527	-0.071061888	0.347358752	0.105623654	-0.036056662	-0.028569843	0.315368849	-0.077704544
-175.00	20.00	0.094318898	0.054924205	-0.552683647	0.114812417	-0.445074221	-0.077357155	0.551611708	0.281390094	-0.063465478	-0.095044084	0.450477730	-0.111960107
-175.00	30.00	0.164131908	0.064797094	-0.689647418	0.169541557	-0.475093499	-0.075424122	0.679318138	0.490760497	-0.082215361	-0.142430002	0.482795644	-0.150089984
-175.00	40.00	0.192074357	0.059119828	-0.865814816	0.196962310	-0.470981301	-0.062393655	0.786715646	0.706147476	-0.094576206	-0.149212261	0.478843841	-0.174401246
-175.00	50.00	0.193620014	0.033018551	-1.048730748	0.188007424	-0.448935836	-0.047015834	0.822432666	0.927177987	-0.092064492	-0.117140806	0.454621150	-0.174243238
-175.00	60.00	0.184952370	0.004108390	-1.185398705	0.188284558	-0.415991712	-0.035790809	0.752872804	1.115161280	-0.085505739	-0.088405774	0.419912320	-0.180954615
-175.00	70.00	0.168427517	-0.004682235	-1.284550129	0.259772514	-0.371137600	-0.012288118	0.597612115	1.259467278	-0.095519075	-0.067665682	0.376462481	-0.248309098
-175.00	80.00	0.157664237	-0.000890732	-1.378917772	0.403578078	-0.296052155	0.050103730	0.394715522	1.379997724	-0.115081288	0.005143503	0.305333999	-0.388746399
-175.00	90.00	0.156599479	0.007063971	-1.472126299	0.560037449	-0.189017461	0.117257556	0.156599479	1.467140080	-0.135341351	0.133285313	0.198517862	-0.560037449
-170.00	-90.00	0.185052632	0.081894204	1.334235500	-0.701142341	-0.145519129	0.003708098	-0.185052632	1.328186244	-0.312337610	0.021617368	0.142664462	-0.701142341
-170.00	-80.00	0.208886666	0.085652686	1.248548629	-0.696214093	0.000811478	0.036578378	-0.422521402	1.261495437	-0.291567116	0.083443306	-0.028047845	-0.679285268
-170.00	-70.00	0.240137938	0.084456285	1.155336540	-0.564632124	0.121995538	0.064058967	-0.620804218	1.164717510	-0.257434223	0.109716168	-0.164129197	-0.508671183
-170.00	-60.00	0.275342554	0.071641463	1.042983169	-0.377967148	0.110706947	0.060208719	-0.759945231	1.037547674	-0.203494404	0.115538308	-0.150896125	-0.297224793
-170.00	-50.00	0.308450701	0.061490090	0.881640316	-0.266528904	0.029537159	0.031998349	-0.802994417	0.871048981	-0.143404743	0.139449882	-0.063094577	-0.183604843
-170.00	-40.00	0.321637821	0.081809993	0.662373538	-0.208744670	0.081745616	0.010755039	-0.714152374	0.676148989	-0.111715542	0.136475181	-0.109471862	-0.125939649
-170.00	-30.00	0.279608529	0.084952495	0.494619076	-0.157585466	0.304668138	-0.019930942	-0.568156949	0.496773512	-0.084558152	0.091308691	-0.322007349	-0.096053435
-170.00	-20.00	0.199581534	0.061702066	0.396567035	-0.110114918	0.448664325	-0.063954230	-0.440912022	0.328983842	-0.051750357	0.045533753	-0.456017891	-0.097758838
-170.00	-10.00	0.119175163	0.039525165	0.279142187	-0.074680341	0.294564154	-0.104653706	-0.295595940	0.170181191	-0.026961702	0.039174762	-0.299704458	-0.116031886
-170.00	0.00	0.064707376	0.045787219	0.023069456	-0.008969156	-0.047435869	-0.131221373	-0.023069456	0.071675193	-0.033855291	0.017070047	0.045157734	-0.131221373
-170.00	10.00	0.051215804	0.076951465	-0.302485813	0.099798392	-0.308403136	-0.151237917	0.306783904	0.114762061	-0.076145044	-0.069098667	0.316223948	-0.166270082
-170.00	20.00	0.093255158	0.109204739	-0.543613261	0.219432016	-0.400296823	-0.169575321	0.542724512	0.288365114	-0.124614508	-0.190672265	0.419950157	-0.234398847
-170.00	30.00	0.153759995	0.121674900	-0.709782027	0.320714470	-0.419896375	-0.165310607	0.691569264	0.501765107	-0.158329561	-0.282012622	0.447394502	-0.303520420
-170.00	40.00	0.188450312	0.106619589	-0.879183556	0.380595786	-0.436565325	-0.134516608	0.794627203	0.717225166	-0.178065217	-0.296467167	0.465546018	-0.347687956
-170.00	50.00	0.193709356	0.064221114	-1.056360260	0.382664530	-0.442761036	-0.098078853	0.827405262	0.930699260	-0.182143215	-0.239341829	0.465700427	-0.356181908
-170.00	60.00	0.182915885	0.022266072	-1.199877543	0.388328884	-0.431671197	-0.062766201	0.758348574	1.117272752	-0.186488359	-0.169787049	0.449390427	-0.367685779
-170.00	70.00	0.164013672	0.011215189	-1.302341571	0.481158638	-0.399645858	-0.011879254	0.599549488	1.262399734	-0.213814613	-0.103661304	0.420212508	-0.456204166
-170.00	80.00	0.152365986	0.018637638	-1.392084586	0.639594262	-0.323291517	0.059791236	0.391784156	1.379400610	-0.251820578	0.004750232	0.347891023	-0.619494749
-170.00	90.00	0.153423079	0.030376511	-1.477436883	0.789393242	-0.201512175	0.120830632	0.153423079	1.460266123	-0.286469246	0.153987165	0.219432771	-0.789393242
-160.00	-90.00	0.186105917	0.180187477	1.296284499	-1.041356574	-0.158116484	0.045756455	-0.186105917	1.279736725	-0.612676252	0.011082020	0.132931264	-1.041356574
-160.00	-80.00	0.207281987	0.217723382	1.189262496	-0.964995549	-0.058611229	0.052804712	-0.410646173	1.208852439	-0.592854591	0.128643893	-0.020021579	-0.941165656
-160.00	-70.00	0.234438032	0.247537673	1.081102394	-0.792452925	0.039147529	0.067244573	-0.590058484	1.114647239	-0.552644896	0.181921765	-0.151098016	-0.721663168
-160.00	-60.00	0.266036404	0.240037862	0.975450248	-0.596487486	0.036959277	0.057740928	-0.718119408	1.000913157	-0.468993446	0.220627194	-0.153838482	-0.487702852
-160.00	-50.00	0.296654802	0.196950777	0.838832234	-0.457059531	-0.046424763	-0.012696628	-0.766441729	0.850377678	-0.339630980	0.301092190	-0.053531295	-0.358289149
-160.00	-40.00	0.308021970	0.172705423	0.624223401	-0.351419845	-0.023561004	-0.046841669	-0.676175574	0.657842362	-0.218820657	0.289320052	-0.059634854	-0.261771122
-160.00	-30.00	0.276412262	0.151623713	0.431710086	-0.254645638	0.199009798	-0.088918987	-0.512078033	0.479639413	-0.134433661	0.180942928	-0.247227559	-0.204328920
-160.00	-20.00	0.201431705	0.119299460	0.323926526	-0.155056872	0.401654720	-0.149149859	-0.373285067	0.322779469	-0.085258125	0.047480499	-0.409819076	-0.193187595
-160.00	-10.00	0.123774685	0.096126722	0.206681837	-0.060835515	0.314567157	-0.202186072	-0.225035124	0.181145918	-0.060914353	-0.018298213	-0.304079235	-0.209678388
-160.00	0.00	0.081220838	0.103942366	-0.000759448	0.028282737	0.012022217	-0.239802058	0.000759448	0.111873005	-0.069894712	-0.030688919	-0.001623923	-0.239802058
-160.00	10.00	0.075564583	0.137818034	-0.275171433	0.161797673	-0.212568712	-0.284233599	0.284112612	0.161966610	-0.120397372	-0.123407544	0.237365637	-0.308011323
-160.00	20.00	0.102836192	0.171899922	-0.537410314	0.336533194	-0.260113667	-0.325939960	0.540172555	0.322320224	-0.191347238	-0.312957259	0.314458844	-0.421384507
-160.00	30.00	0.142660005	0.175358863	-0.759560127	0.501923995	-0.251173539	-0.323544858	0.729128369	0.532949168	-0.252420234	-0.474574531	0.329365442	-0.531160064
-160.00	40.00	0.171223800	0.139805447	-0.960821906	0.612478824	-0.267543229	-0.271852830	0.846092819	0.751429413	-0.297746212	-0.513590749	0.352113619	-0.601945150
-160.00	50.00	0.175843583	0.084036913	-1.143461811	0.658003479	-0.301279977	-0.197617830	0.869707084	0.958072612	-0.339900306	-0.436659731	0.375993817	-0.631086201
-160.00	60.00	0.160922028	0.049691901	-1.271215635	0.709058328	-0.342474881	-0.117090845	0.774970382	1.127116589	-0.395707522	-0.311303389	0.408395145	-0.672607947
-160.00	70.00	0.146947458	0.058802436	-1.339117004	0.844980233	-0.360061103	-0.039675832	0.596090432	1.249809692	-0.468450537	-0.183457903	0.424439105	-0.807591623
-160.00	80.00	0.144071212	0.076761106	-1.402102100	1.014474122	-0.295092973	0.039016695	0.385354921	1.347291324	-0.535837049	-0.028503302	0.350689262	-0.992286802
-160.00	90.00	0.152864546	0.087494927	-1.472950517	1.152440616	-0.152216604	0.103157625	0.152864546	1.414045759	-0.585997084	0.148997604	0.178318805	-1.152440616
-150.00	-90.00	0.199099032	0.248948431	1.249943739	-1.219582249	-0.234857382	0.095558435	-0.199099032	1.206957246	-0.840567535	0.034672659	0.155613242	-1.219582249
-150.00	-80.00	0.214611821	0.307907270	1.114479303	-1.116136181	-0.164231546	0.044701869	-0.404878685	1.136732089	-0.796795971	0.211839681	0.023309811	-1.091417166
-150.00	-70.00	0.228138472	0.371540219	0.964067117	-0.932114813	-0.041157579	-0.034350546	-0.544110413	1.037899884	-0.735712670	0.324623851	-0.107618035	-0.887649990
-150.00	-60.00	0.252850135	0.379289210	0.858982178	-0.734535606	0.024300450	-0.040645221	-0.648465729	0.943368559	-0.637211752	0.336396938	-0.187078812	-0.656449105
-150.00	-50.00	0.278945857	0.334960746	0.749557522	-0.572495312	-0.033638457	-0.021304409	-0.695491211	0.820028189	-0.487530232	0.349644064	-0.146704626	-0.452251062
-150.00	-40.00	0.288176604	0.274426121	0.574429614	-0.450516404	-0.062144685	-0.067087560	-0.625274964	0.648161402	-0.311900069	0.367296868	-0.097177392	-0.340978415
-150.00	-30.00	0.257713504	0.222483147	0.409862220	-0.349351441	0.107383061	-0.147197844	-0.483807847	0.482002249	-0.183548391	0.272060587	-0.207470609	-0.302152793
-150.00	-20.00	0.189715337	0.180786359	0.306015060	-0.245969065	0.312184079	-0.234483182	-0.352446561	0.335424171	-0.119760186	0.113530496	-0.345828015	-0.304468491
-150.00	-10.00	0.128024725	0.153203964	0.174633774	-0.144048753	0.253769105	-0.281813464	-0.194211955	0.212052320	-0.084801072	0.038350257	-0.266232458	-0.302545887
-150.00	0.00	0.093744526	0.149051668	-0.044024455	-0.039166836	-0.018987138	-0.301719338	0.044024455	0.155710975	-0.082210268	0.043413044	-0.003140074	-0.301719338
-150.00	10.00	0.078859651	0.166717761	-0.314843465	0.116182507	-0.210574148	-0.366656604	0.323754120	0.197963130	-0.132887015	-0.048940519	0.207736653	-0.381261147
-150.00	20.00	0.091778694	0.183298966	-0.575614371	0.320663200	-0.234832255	-0.423928900	0.572290739	0.336834673	-0.214055535	-0.269105789	0.281537008	-0.508036133
-150.00	30.00	0.125531726	0.176275903	-0.807231730	0.533844013	-0.216203368	-0.432540195	0.761849048	0.531828339	-0.300110511	-0.479576724	0.310263799	-0.641512803
-150.00	40.00	0.157377501	0.141355094	-1.032588188	0.706048014	-0.227113546	-0.391164915	0.892168751	0.749895255	-0.394005469	-0.572595257	0.341400199	-0.753488624
-150.00	50.00	0.170340581	0.102481454	-1.222651132	0.826458584	-0.278582708	-0.316194540	0.916393454	0.957188101	-0.502307687	-0.530541544	0.385768836	-0.836349938
-150.00	60.00	0.154601315	0.102899739	-1.304606092	0.929778739	-0.370868957	-0.228837675	0.786191712	1.096848771	-0.615374468	-0.388799781	0.454537004	-0.919630845
-150.00	70.00	0.133534952	0.134536578	-1.314352638	1.060023278	-0.425081715	-0.137003769	0.575016887	1.176438222	-0.711220010	-0.212929407	0.485035505	-1.042954101
-150.00	80.00	0.140128598	0.145144724	-1.356047629	1.201879692	-0.339613934	-0.040851361	0.373474930	1.250175775	-0.781255590	-0.045777028	0.378351035	-1.190714203
-150.00	90.00	0.158246979	0.140242741	-1.422791001	1.320921272	-0.146195854	0.046471937	0.158246979	1.302294521	-0.832849276	0.113343805	0.149845292	-1.320921272
-140.00	-90.00	0.202591538	0.331139515	1.127503490	-1.206081906	-0.306363887	0.114625243	-0.202591538	1.076570160	-0.978412858	0.109118880	0.161008667	-1.206081906
-140.00	-80.00	0.213677639	0.386179364	0.978367309	-1.103339773	-0.203213476	0.036949288	-0.380323096	1.014741848	-0.891308341	0.249517029	0.009127265	-1.080161386
-140.00	-70.00	0.222943737	0.431628570	0.844018589	-0.941225955	-0.085230578	-0.066614220	-0.498169943	0.943421009	-0.791439758	0.349340836	-0.101398136	-0.907246489
-140.00	-60.00	0.240036544	0.423210918	0.756731038	-0.777445114	-0.046628095	-0.113583860	-0.586243264	0.865999991	-0.668301883	0.403103833	-0.150918078	-0.730079149
-140.00	-50.00	0.257545327	0.370628138	0.670163387	-0.645895587	-0.099101013	-0.128553948	-0.628063888	0.758319511	-0.507497150	0.457180948	-0.127652255	-0.577417610
-140.00	-40.00	0.257577259	0.315072824	0.542527403	-0.542275841	-0.087702060	-0.159285070	-0.581167573	0.620820044	-0.338687000	0.453026909	-0.134022297	-0.470587634
-140.00	-30.00	0.221564339	0.271291128	0.421601489	-0.462804880	0.092021110	-0.234331779	-0.475899769	0.482854188	-0.219982859	0.337635462	-0.252809256	-0.434339713
-140.00	-20.00	0.161506974	0.236728557	0.321290946	-0.359739819	0.251432660	-0.321503298	-0.357153370	0.352605456	-0.154425335	0.181574293	-0.339218321	-0.425152542
-140.00	-10.00	0.118266025	0.207716083	0.174514522	-0.199161304	0.169014948	-0.354391066	-0.192399934	0.245952293	-0.103733848	0.088749756	-0.215989753	-0.383591067
-140.00	0.00	0.092260471	0.194088265	-0.057527999	-0.041610591	-0.040896480	-0.375013849	0.057527999	0.195433153	-0.089376350	0.058163312	0.004581749	-0.375013849
-140.00	10.00	0.069379241	0.199068032	-0.340771567	0.108893831	-0.150657726	-0.439166830	0.347642060	0.225628806	-0.146612904	-0.043728242	0.135323411	-0.451404114
-140.00	20.00	0.075841509	0.201462147	-0.590772381	0.298246399	-0.170220370	-0.499577062	0.581083771	0.338875520	-0.238398088	-0.236166529	0.200713811	-0.571455155
-140.00	30.00	0.112907883	0.193289538	-0.794856301	0.523446510	-0.195812609	-0.512731615	0.744819690	0.503596410	-0.340677791	-0.417783399	0.276599574	-0.705761859
-140.00	40.00	0.144801427	0.180411991	-1.011391902	0.719173198	-0.222774795	-0.485054670	0.867847710	0.698952851	-0.484785590	-0.517674078	0.324366160	-0.833849056
-140.00	50.00	0.159216333	0.166980480	-1.199410233	0.862396826	-0.267764807	-0.422950985	0.892932824	0.889574540	-0.652724364	-0.500729467	0.353178632	-0.932501949
-140.00	60.00	0.151949812	0.161075862	-1.275021935	0.980533154	-0.368826740	-0.340383713	0.769103365	1.007605058	-0.784322510	-0.364304032	0.408193418	-1.019358478
-140.00	70.00	0.143335324	0.160568475	-1.283110202	1.095261661	-0.436543871	-0.232523819	0.573540682	1.064407803	-0.866518629	-0.173737857	0.434751560	-1.108737130
-140.00	80.00	0.151468312	0.156398760	-1.304418869	1.207692276	-0.351102280	-0.109285879	0.375677127	1.104741919	-0.928627806	-0.017411693	0.334580840	-1.208322010
-140.00	90.00	0.166633352	0.152659889	-1.342276689	1.303039782	-0.155753312	-0.003385723	0.166633352	1.126371484	-0.979743085	0.097522685	0.117137659	-1.303039782
-130.00	-90.00	0.203345795	0.391880033	1.027780828	-1.021975672	-0.450524271	0.097637333	-0.203345795	0.960842303	-1.039221421	0.282361547	0.214796883	-1.021975672
-130.00	-80.00	0.213753517	0.429074056	0.849635180	-0.944119192	-0.208671895	0.052354784	-0.358043721	0.890386677	-0.888339827	0.232091747	-0.030953914	-0.920684587
-130.00	-70.00	0.218337144	0.448023749	0.717205524	-0.818378799	-0.033566272	-0.025519795	-0.450468539	0.824415189	-0.747056959	0.221045353	-0.174471084	-0.777752802
-130.00	-60.00	0.222303658	0.426615225	0.631191110	-0.707501234	-0.042153009	-0.122339367	-0.508116170	0.749618648	-0.607816726	0.327780297	-0.162731620	-0.673883726
-130.00	-50.00	0.224642316	0.376215940	0.549809846	-0.634995839	-0.131613834	-0.210170883	-0.525496955	0.651743424	-0.453853859	0.466675988	-0.104741334	-0.621530273
-130.00	-40.00	0.213075881	0.335313137	0.456071485	-0.547464100	-0.096607224	-0.279663899	-0.486333563	0.550221907	-0.315068437	0.459129259	-0.121459607	-0.566138116
-130.00	-30.00	0.179668920	0.310783512	0.362406596	-0.433723531	0.080493007	-0.335881125	-0.403687778	0.454565586	-0.219382702	0.287729943	-0.210828213	-0.507743352
-130.00	-20.00	0.135194272	0.291418734	0.263405494	-0.271591996	0.183060976	-0.363749221	-0.293759363	0.362808847	-0.159014186	0.103783831	-0.217870571	-0.434702392
-130.00	-10.00	0.106087400	0.272411074	0.124600412	-0.042671180	0.094463462	-0.353993116	-0.141129335	0.289742432	-0.111644062	-0.005839084	-0.045822408	-0.356024938
-130.00	0.00	0.090329878	0.259813989	-0.073615819	0.116371382	-0.038303392	-0.365195638	0.073615819	0.257091989	-0.097808512	-0.045459982	0.113766596	-0.365195638
-130.00	10.00	0.079978979	0.255156182	-0.309437311	0.202174018	-0.099654470	-0.412848038	0.318624467	0.280628498	-0.144836609	-0.097722536	0.161660090	-0.441683098
-130.00	20.00	0.085093751	0.240911854	-0.521221577	0.313052418	-0.153538556	-0.475314393	0.518891846	0.350536391	-0.230162156	-0.175969548	0.199508688	-0.553719661
-130.00	30.00	0.108268641	0.227022731	-0.706481308	0.504518012	-0.208366712	-0.519053211	0.665965081	0.461238165	-0.344698512	-0.288052568	0.269830913	-0.701772273
-130.00	40.00	0.124202835	0.234693552	-0.902585035	0.711025898	-0.189108807	-0.520523470	0.771256294	0.613870042	-0.522409262	-0.420313916	0.282496149	-0.855782749
-130.00	50.00	0.135119497	0.240027287	-1.068509031	0.850489940	-0.146981599	-0.477667377	0.790331906	0.765837679	-0.714780040	-0.474012787	0.232955771	-0.958551764
-130.00	60.00	0.143209869	0.219717653	-1.153275571	0.943412745	-0.180491382	-0.391193071	0.700661170	0.856334624	-0.851478323	-0.382708195	0.217842729	-1.012615938
-130.00	70.00	0.154888484	0.188073938	-1.187451465	1.026849654	-0.232376859	-0.262768281	0.551679886	0.895372384	-0.935092963	-0.206456132	0.229253498	-1.054795088
-130.00	80.00	0.170083947	0.168697551	-1.209196682	1.105091801	-0.192563843	-0.127564582	0.377474790	0.913662774	-0.998037596	-0.056587881	0.174543868	-1.110454330
-130.00	90.00	0.181729277	0.169579016	-1.223837488	1.169912605	-0.080268447	-0.025892900	0.181729277	0.916572636	-1.046517197	0.044845563	0.031760451	-1.169912605
-120.00	-90.00	0.199114302	0.425056487	0.935971270	-0.719644752	-0.649098291	0.007584826	-0.199114302	0.836095350	-1.023103140	0.558343197	0.317980494	-0.719644752
-120.00	-80.00	0.207196382	0.449715947	0.727495377	-0.669886502	-0.367507804	-0.025606509	-0.330376849	0.765676616	-0.814156923	0.389042124	0.104852855	-0.664155945
-120.00	-70.00	0.205023602	0.458827017	0.541530244	-0.602266350	-0.135231365	-0.090013401	-0.377873418	0.686852941	-0.609381957	0.262399873	-0.037521789	-0.596731641
-120.00	-60.00	0.195391063	0.436599283	0.425670677	-0.553095457	-0.099184391	-0.175010241	-0.382048963	0.611274647	-0.452945838	0.299951724	-0.058647482	-0.566499837
-120.00	-50.00	0.183209804	0.384335135	0.363599213	-0.545835687	-0.167697517	-0.249620183	-0.374063921	0.530993065	-0.331396882	0.416268595	-0.054400300	-0.578587156
-120.00	-40.00	0.168752218	0.341795317	0.310034083	-0.462313034	-0.154808047	-0.311836307	-0.345971721	0.460282310	-0.231531880	0.411366124	-0.055710851	-0.536049560
-120.00	-30.00	0.146307059	0.327996460	0.252875311	-0.250895019	-0.041554085	-0.336261215	-0.292149973	0.410624909	-0.163766158	0.228692927	-0.021788845	-0.416658264
-120.00	-20.00	0.114476572	0.321306467	0.181783762	-0.017107180	0.023424378	-0.327150915	-0.209974154	0.363132812	-0.121336476	0.043697740	0.071267518	-0.313272301
-120.00	-10.00	0.090468220	0.314449570	0.078580806	0.187186165	-0.026295369	-0.313753172	-0.093096629	0.323690924	-0.091884562	-0.042157402	0.219976247	-0.276482020
-120.00	0.00	0.080893857	0.305907302	-0.063187329	0.274106062	-0.106614704	-0.331245275	0.063187329	0.305370423	-0.082897516	-0.044721989	0.290690165	-0.331245275
-120.00	10.00	0.076931220	0.297539115	-0.233884665	0.271126396	-0.175547954	-0.368122685	0.243690398	0.315864486	-0.118329790	-0.013436617	0.263649485	-0.409610679
-120.00	20.00	0.072361466	0.287718667	-0.407600506	0.284084927	-0.261324825	-0.406348376	0.407768267	0.352874234	-0.205702249	0.023348017	0.241490437	-0.479005338
-120.00	30.00	0.076859360	0.281468296	-0.566833228	0.429400605	-0.310724919	-0.451097557	0.529321655	0.418748081	-0.328535616	-0.029614632	0.282081941	-0.605362247
-120.00	40.00	0.090542614	0.283398039	-0.713572501	0.672526100	-0.255315421	-0.489476000	0.604827919	0.509447516	-0.478856476	-0.193797354	0.301344105	-0.807251814
-120.00	50.00	0.105755207	0.278800486	-0.835670973	0.802109379	-0.165552633	-0.485626047	0.618172136	0.595517924	-0.634925229	-0.300425767	0.207115771	-0.926605838
-120.00	60.00	0.127154645	0.265313189	-0.921675816	0.831759531	-0.139095783	-0.411616606	0.570957061	0.660653958	-0.768853881	-0.265714620	0.120997878	-0.926133186
-120.00	70.00	0.154735692	0.256663905	-0.979466313	0.887185599	-0.149469705	-0.270543944	0.480401197	0.708937457	-0.879586944	-0.149387186	0.117349535	-0.926213239
-120.00	80.00	0.177160387	0.247343107	-1.014519778	0.938140430	-0.128618491	-0.134825088	0.350638433	0.729140675	-0.962281507	-0.036454704	0.090402231	-0.947300100
-120.00	90.00	0.188217183	0.233679010	-1.031274536	0.954743663	-0.076141330	-0.046760661	0.188217183	0.718009227	-1.009949451	0.042559996	-0.002425255	-0.954743663
-110.00	-90.00	0.180914257	0.459936497	0.616177072	-0.393933331	-0.575549246	-0.074228776	-0.180914257	0.642943903	-0.736324595	0.566227116	0.266601669	-0.393933331
-110.00	-80.00	0.182945370	0.459405418	0.496085088	-0.338001190	-0.440769905	-0.125781623	-0.266310291	0.609658629	-0.586358994	0.476628795	0.211998933	-0.354707942
-110.00	-70.00	0.172577345	0.443249725	0.378109102	-0.336426184	-0.291929187	-0.162638175	-0.291490587	0.558228133	-0.430013784	0.365948993	0.135333493	-0.371762735
-110.00	-60.00	0.155535181	0.418385411	0.293232461	-0.324805224	-0.214703770	-0.178390245	-0.281313648	0.506606673	-0.308650504	0.310139370	0.065998046	-0.370484698
-110.00	-50.00	0.137869939	0.384524421	0.250366939	-0.274429808	-0.191635499	-0.181868417	-0.266547267	0.457241755	-0.228464232	0.288060849	0.030698656	-0.327128194
-110.00	-40.00	0.123973559	0.354037997	0.209283124	-0.176041415	-0.157815279	-0.205497394	-0.240008841	0.411178415	-0.158257991	0.239599010	0.051378347	-0.270577376
-110.00	-30.00	0.110418035	0.340357082	0.161759624	0.000661529	-0.102395210	-0.228770486	-0.195296961	0.380199179	-0.102553200	0.135146137	0.143046544	-0.197790287
-110.00	-20.00	0.093097104	0.334311247	0.114411248	0.185927012	-0.071149299	-0.237407223	-0.139352491	0.357454218	-0.068905436	0.034874051	0.264813388	-0.159499032
-110.00	-10.00	0.078948543	0.327933045	0.054420411	0.318521969	-0.082341318	-0.243165194	-0.067302914	0.337980126	-0.047979517	-0.015468477	0.362606602	-0.184160208
-110.00	0.00	0.075590784	0.320955512	-0.030425215	0.382060176	-0.109373654	-0.257341098	0.030425215	0.327453097	-0.038741149	-0.027894661	0.396427121	-0.257341098
-110.00	10.00	0.077080168	0.317325245	-0.139221552	0.400211844	-0.148272536	-0.275622022	0.150491295	0.332419180	-0.059917964	-0.011839897	0.376099994	-0.340930762
-110.00	20.00	0.078040709	0.318015990	-0.257019743	0.427510333	-0.208437615	-0.293149667	0.268211050	0.353984678	-0.122460747	0.024176119	0.354574500	-0.421687724
-110.00	30.00	0.075899249	0.316829302	-0.362917634	0.496251204	-0.248831302	-0.326297502	0.352245515	0.382265943	-0.217110882	0.031036099	0.335643720	-0.530707528
-110.00	40.00	0.079642059	0.311191454	-0.463240651	0.586915809	-0.228275822	-0.365181375	0.406055855	0.415132490	-0.328911606	-0.019548158	0.279986242	-0.657007373
-110.00	50.00	0.089860242	0.299661124	-0.560741271	0.612860764	-0.176481774	-0.393034402	0.429274480	0.448260477	-0.451860042	-0.071872604	0.147617817	-0.722116226
-110.00	60.00	0.108153523	0.291201798	-0.653808187	0.598845847	-0.137789529	-0.380207142	0.420567792	0.485792287	-0.580848934	-0.085545513	0.019080616	-0.708719287
-110.00	70.00	0.139426353	0.295330532	-0.741815701	0.623500896	-0.119187079	-0.284281583	0.384733827	0.532244677	-0.711237973	-0.052302870	-0.009873248	-0.683129219
-110.00	80.00	0.163849328	0.293606187	-0.784116458	0.633777089	-0.116334240	-0.182246624	0.297520483	0.549740083	-0.799317336	0.010292609	-0.025448239	-0.655795385
-110.00	90.00	0.174664614	0.282884891	-0.780429744	0.644220392	-0.116174479	-0.092885656	0.174664614	0.532747537	-0.830116402	0.077399535	-0.047549953	-0.644220392
-100.00	-90.00	0.134268684	0.428950796	0.191137138	-0.029257499	-0.261711354	-0.060018020	-0.134268684	0.455624685	-0.262719859	0.268157390	0.104551911	-0.029257499
-100.00	-80.00	0.129365058	0.413734254	0.141218781	0.043706541	-0.216166179	-0.090161645	-0.151922096	0.435499369	-0.186681985	0.226982765	0.132454060	0.027386135
-100.00	-70.00	0.121117447	0.393274034	0.112837227	0.068327975	-0.157402168	-0.107490520	-0.152405776	0.412904943	-0.131917486	0.168492660	0.149820617	0.027443371
-100.00	-60.00	0.113071938	0.385078889	0.092172390	0.091972885	-0.132828822	-0.097846233	-0.144009366	0.402907271	-0.089802118	0.137539874	0.151803261	0.030727738
-100.00	-50.00	0.106387217	0.383117765	0.076223196	0.164351260	-0.126585023	-0.077351304	-0.130492662	0.399311548	-0.056685504	0.116606648	0.184373585	0.076179910
-100.00	-40.00	0.102154830	0.376474576	0.055936283	0.246858397	-0.104398839	-0.081010977	-0.108513538	0.390587489	-0.023716765	0.079017489	0.255641998	0.096619511
-100.00	-30.00	0.096711412	0.365966013	0.033187608	0.333098138	-0.075819391	-0.099506525	-0.077097018	0.377831474	0.002591082	0.033214546	0.346252218	0.080373890
-100.00	-20.00	0.088343969	0.354976140	0.018533701	0.411541764	-0.063602611	-0.115029581	-0.047631399	0.365099601	0.013871417	0.002314384	0.430636783	0.032663125
-100.00	-10.00	0.080745542	0.347122272	0.000228542	0.465662635	-0.061684473	-0.124138513	-0.014246386	0.355663897	0.017994534	-0.015142420	0.483561521	-0.041391102
-100.00	0.00	0.074582539	0.341207356	-0.034039252	0.488502967	-0.056688803	-0.125720211	0.034039252	0.348974771	0.014199427	-0.029000077	0.490925417	-0.125720211
-100.00	10.00	0.072126316	0.339367691	-0.080684386	0.507739950	-0.057107451	-0.127788149	0.091983212	0.348979192	-0.002776982	-0.034442069	0.480493261	-0.214014877